# vtk DataFile Version 2.0
k223d output
ASCII
DATASET POLYDATA
POINTS 846 double
605752.967840 5945771.030353 -39251.380920
582620.747742 5945307.564194 -49418.083191
576101.264762 5939633.714810 -51035.785675
195000.892176 5474853.255968 -69835.975647
187107.593686 5464150.162991 -68532.821655
186791.221872 5458593.987112 -65987.434387
186475.089480 5453037.832477 -63456.665039
189807.544393 5447275.561448 -59073.097229
196799.730884 5441314.273610 -52987.899780
203806.995934 5435362.480891 -47171.886444
210829.315516 5429420.192463 -41695.674896
260641.863315 5393647.806453 -17661.346436
314782.936973 5358222.735337 -9338.177681
318487.013764 5358103.102208 -9155.740738
326065.687989 5363428.204819 -9098.498344
423586.087886 5455778.158452 -8898.145676
438328.579216 5472270.776988 -8981.719971
489238.795903 5533082.281235 -9319.036484
528428.238126 5583182.532952 -9602.576256
563423.229408 5627970.549199 -9525.533676
587521.860394 5661688.415345 -9396.460533
654626.237886 5757868.467779 -9325.042725
683890.197742 5803399.016766 -9021.188736
687083.396830 5809087.191298 -9015.972137
690268.714396 5814777.638570 -9013.016701
693446.141541 5820470.354203 -9011.543274
696615.669362 5826165.333777 -9010.459900
699777.288961 5831862.572828 -9008.448601
702930.991441 5837562.066851 -9004.067421
706076.767906 5843263.811297 -8995.855331
709214.609462 5848967.801577 -8982.431412
712344.507217 5854674.033057 -8962.578773
715466.452281 5860382.501062 -8935.307503
718580.435767 5866093.200873 -8899.891853
704660.030279 5876622.702844 -10276.861191
629341.110537 5929663.329673 -27168.867111
594186.857791 5945539.297273 -44245.521508
566806.133724 5928297.606058 -52495.702258
557511.002685 5916961.497305 -53945.560246
548215.871646 5905625.388553 -55375.081839
538920.740608 5894289.279801 -56777.853098
529625.609569 5882953.171049 -58123.329950
520330.478530 5871617.062296 -59431.395280
511035.347491 5860280.953544 -60760.075784
501740.216453 5848944.844792 -62147.244572
492445.085414 5837608.736040 -63625.987211
483149.954375 5826272.627287 -65146.756005
473854.823337 5814936.518535 -66592.778793
464559.692298 5803600.409783 -67827.734840
455264.561260 5792264.301031 -68690.958688
445969.430221 5780928.192279 -69191.582593
436674.299182 5769592.083527 -69373.845588
427379.168144 5758255.974774 -69382.902446
418084.037105 5746919.866022 -69327.775747
408788.906066 5735583.757270 -69355.866207
399493.775028 5724247.648518 -69445.648612
390198.643989 5712911.539766 -69613.164209
380903.512950 5701575.431013 -69798.740904
371608.381912 5690239.322261 -70011.887019
362313.250873 5678903.213509 -70235.426836
353018.119834 5667567.104757 -70512.465525
343722.988795 5656230.996004 -70781.192456
334427.857757 5644894.887252 -70968.828200
325132.726718 5633558.778500 -71037.850579
315837.595679 5622222.669748 -70954.174420
306542.464641 5610886.560995 -70788.836525
297247.333602 5599550.452243 -70719.535058
287952.202563 5588214.343491 -70791.652694
278657.071524 5576878.234738 -70991.367942
269361.940486 5565542.125986 -71382.663580
260066.809447 5554206.017234 -71806.494760
250771.678408 5542869.908482 -72177.838582
241476.547370 5531533.799729 -72421.704574
232181.416331 5520197.690977 -72409.141035
222886.285292 5508861.582225 -72101.828846
213591.154253 5497525.473472 -71528.363396
204296.023215 5486189.364720 -70740.030053
220791.825076 5422265.715261 -35132.866853
230754.334636 5415111.238059 -29479.493893
240716.844195 5407956.760857 -24644.645928
250679.353755 5400802.283655 -20752.008967
271470.078047 5386562.792230 -15184.974680
282298.292778 5379477.778007 -13198.359363
293126.507510 5372392.763783 -11636.703313
303954.722242 5365307.749560 -10373.610217
336901.287978 5373689.310778 -9131.102553
347736.887966 5383950.416737 -9135.280022
358572.487955 5394211.522696 -9106.421882
369408.087943 5404472.628656 -9055.528263
380243.687931 5414733.734615 -8999.681177
391079.287920 5424994.840574 -8953.764359
401914.887909 5435255.946533 -8923.167775
412750.487897 5445517.052493 -8907.440471
430957.333551 5464024.467720 -8939.262139
446813.615331 5482406.027696 -9040.519171
455298.651445 5492541.278404 -9093.281697
463783.687559 5502676.529111 -9151.276870
472268.723674 5512811.779819 -9203.172876
480753.759788 5522947.030527 -9259.891955
497076.684347 5543102.331578 -9384.052207
504914.572792 5553122.381922 -9459.461882
512752.461237 5563142.432265 -9518.955799
520590.349681 5573162.482608 -9565.067932
537176.985946 5594379.537014 -9615.856657
545925.733767 5605576.541075 -9608.339889
554674.481587 5616773.545137 -9580.723839
571456.106403 5639209.837914 -9484.093986
579488.983398 5650449.126630 -9437.433487
595909.907580 5673710.921900 -9370.424921
604297.954767 5685733.428454 -9366.592290
612686.001953 5697755.935008 -9383.602603
621074.049140 5709778.441562 -9419.470563
629462.096326 5721800.948117 -9443.312466
637850.143513 5733823.454671 -9445.866601
646238.190699 5745845.961225 -9402.320041
661942.227850 5769251.105026 -9257.092546
669258.217814 5780633.742272 -9174.225913
676574.207778 5792016.379519 -9089.062629
711620.233023 5871357.951859 -9549.177153
693900.184601 5884199.935248 -11538.428774
683140.338925 5891777.167652 -12998.816546
672380.493247 5899354.400056 -14718.371285
661620.647569 5906931.632460 -16833.368496
650860.801892 5914508.864865 -19495.472580
640100.956214 5922086.097269 -22898.224071
617547.039189 5937717.180013 -32811.563457
681057.920242 5808681.467093 -9385.966616
427501.443070 5474531.308357 -9689.658516
484549.216791 5544826.521366 -10238.272326
515831.675759 5584960.318285 -10495.630431
321617.269039 5606772.620230 -61670.573798
262090.381386 5405367.264336 -19522.351642
284075.082850 5564357.336421 -63011.484392
650267.685881 5901680.654159 -18390.777913
413807.892466 5721780.192309 -62111.069651
573593.559124 5663454.558232 -10437.083101
366394.102220 5666449.568240 -63320.778408
648637.673769 5771690.145286 -10284.978095
469729.484938 5789882.535796 -61553.959015
448746.820760 5504269.150188 -10119.098386
505203.538965 5834623.677735 -56690.745263
539235.990531 5619594.605738 -10777.543868
377945.880734 5430218.315069 -9994.335921
544090.533248 5880571.405814 -50725.611914
605909.356461 5709502.167044 -10376.807722
245289.022734 5518960.886881 -65030.113555
441844.091822 5755874.209540 -62677.442447
692920.889295 5832776.497412 -9484.010470
230525.487662 5428401.061928 -33948.882794
345085.424805 5397353.729700 -10064.906785
572802.322119 5915650.475431 -46593.232091
681294.531640 5880205.709504 -12603.150178
221513.494976 5485301.751847 -61982.738519
293916.613374 5385178.091806 -12742.524948
701875.882106 5848953.605944 -9467.805254
627834.092923 5917034.510963 -25699.811938
339597.650397 5631177.013265 -62781.984395
263965.246812 5539830.735542 -63804.433870
302256.703944 5585806.631352 -62483.366326
394618.903483 5700062.216156 -62641.959837
631610.063228 5746021.789978 -10400.640424
525672.193014 5858815.092843 -53489.705819
490528.987755 5813204.315331 -58101.062475
399130.818968 5449534.164040 -9870.544656
589692.135081 5686986.437128 -10391.712029
663926.013490 5792739.519589 -9988.957854
500360.270691 5564760.353777 -10376.522995
468179.011690 5524801.959133 -10097.572465
213108.360675 5438480.845763 -44573.613141
558808.117541 5640416.016727 -10417.610610
197754.963582 5449516.021086 -56360.227853
687539.802248 5819663.262851 -9357.759233
322727.880116 5376116.315834 -10031.129213
704911.605281 5867528.730272 -9921.134749
606721.477336 5930393.725386 -35608.303791
587195.338733 5937276.001839 -45422.396139
316492.542697 5365069.702730 -9665.722669
193068.570607 5460659.831534 -63903.704412
409080.423223 5459353.904719 -9874.646932
396524.152694 5463195.713891 -10931.847377
386260.406300 5454118.461027 -11011.993192
383911.804795 5467470.437592 -12220.519297
373606.141996 5458945.068149 -12379.376489
371375.206114 5472152.782123 -13790.634025
361026.154480 5463685.698001 -14009.218369
358832.608297 5476895.029386 -15706.858545
369207.385319 5485399.894153 -15440.715860
348461.917319 5468401.559111 -15996.427726
356621.445032 5490160.590229 -17729.184915
367140.629965 5498763.887716 -17380.791794
354376.555274 5503511.053215 -20150.627531
364972.771517 5512171.067437 -19691.881860
352297.842737 5516974.748689 -23002.211230
362704.964557 5525600.236061 -22438.387886
342193.440836 5508482.481994 -23520.196638
375559.626025 5520867.989913 -19234.914145
373261.817885 5534245.456754 -21827.493747
386024.603501 5529500.774467 -18772.694406
383779.525165 5542879.720766 -21206.896972
396507.541073 5538081.465103 -18295.585562
394360.091077 5551535.224264 -20577.434870
381554.558905 5556368.906066 -24068.214236
392183.518777 5564995.052482 -23261.528540
404958.106430 5560165.282274 -19973.119624
402808.003875 5573604.722261 -22501.500420
415814.600400 5568858.262332 -19392.223971
413429.185513 5582230.537616 -21831.415009
426277.787252 5577394.235886 -18921.420896
424031.120853 5590832.124796 -21251.680861
411221.057146 5595713.127193 -24692.650409
421853.872088 5604314.841581 -24000.483824
434624.690624 5599401.152402 -20747.474463
432509.572388 5612885.656575 -23396.194717
445243.094749 5607959.855577 -20288.225084
443141.407797 5621437.690001 -22853.637408
455860.308998 5616509.984973 -19836.754821
453889.405325 5629925.958687 -22295.616308
441026.772536 5634944.343141 -25893.302365
451725.512019 5643548.510272 -25284.644708
464689.985955 5638457.249144 -21711.295518
462463.518651 5652184.458762 -24648.670514
475437.479793 5647116.610899 -21110.640556
473278.140612 5660903.356680 -23941.931268
486271.652451 5655801.124894 -20430.010696
484192.299516 5669634.458263 -23133.558096
471111.595049 5674745.692866 -27315.483125
482088.347201 5683524.599802 -26359.510073
495167.121397 5678389.480622 -22227.494483
493092.505656 5692310.056032 -25270.391976
506216.701886 5687157.648779 -21239.928330
504113.824771 5701122.911667 -24079.570808
517259.100236 5695957.726706 -20213.663494
[...]
CELL_DATA 1564
SCALARS slip double 1
LOOKUP_TABLE default
0.622352
4.441946
0.941215
0.293305
0.302395
0.664389
0.434119
5.184118
0.245405
0.452583
0.145782
0.322590
1.821768
0.029251
3.017884
0.747585
0.000000
3.645528
0.617080
0.026374
0.536873
0.776761
6.297655
13.297533
2.977799
11.122802
6.537595
13.291544
0.000000
3.920413
5.455930
0.307257
7.744484
0.163961
3.599452
14.515166
4.428482
13.960033
0.339473
0.695116
0.104582
1.472680
6.203230
1.483601
4.554944
0.577313
0.239477
1.193541
3.993797
1.282692
4.913970
0.467963
12.507843
0.308240
12.879887
7.157477
0.355077
0.203824
0.000000
0.366168
5.733737
14.350399
0.482384
4.029430
0.159665
4.972479
4.662600
0.044968
0.244181
11.041346
0.203863
5.927160
1.591934
0.142537
15.398301
4.719470
14.660471
5.596774
4.063731
5.633061
4.067476
2.023351
5.386488
5.496924
0.054782
0.360519
3.452357
4.584048
0.403557
1.993980
5.458612
6.123489
4.044138
5.683529
0.044112
3.654382
5.774913
0.855244
1.968429
13.298733
0.000000
3.990130
13.452873
11.916792
16.031902
0.241346
14.456849
0.425090
14.724076
0.064027
4.649658
0.092325
0.000000
13.461467
13.888438
4.829347
4.635438
15.033812
0.022715
0.439201
2.761769
3.554189
15.006383
1.405482
1.960902
0.595813
1.320040
5.069107
5.020582
0.125900
6.142025
4.168377
11.145600
0.077440
15.061210
0.083050
12.150118
0.043564
5.680877
0.145810
5.383397
0.389585
0.025277
5.534158
14.984044
12.289586
2.254150
1.749057
0.735059
2.277945
1.483491
4.390020
4.753415
0.068979
0.320999
1.962812
3.310192
1.050763
0.029024
12.353497
0.000000
7.511588
1.796713
5.537036
0.832395
1.444085
6.144944
15.014704
15.169218
0.042998
4.364646
12.748725
4.383002
10.020757
14.435459
12.753643
15.653367
5.511375
12.533219
0.259003
6.114536
0.379040
15.289174
0.209686
1.181580
1.724896
1.115071
4.407996
14.822645
5.180509
9.251396
0.986677
4.544042
0.136314
2.395816
14.692460
1.464564
4.304383
1.537324
1.694983
5.278414
4.032838
0.861346
5.612042
0.040540
9.298210
0.562834
0.154553
1.113500
13.995849
4.629272
5.089265
10.307819
0.961722
9.048516
4.667700
13.124239
14.168713
5.422981
4.877990
5.090259
0.332595
0.548374
15.296340
10.185116
5.038051
3.715203
9.454548
13.372425
3.273875
9.957162
9.524959
0.000000
3.530363
5.317580
13.305051
1.405784
16.140126
0.559216
14.232038
5.000818
1.237310
5.306030
13.648272
14.720280
11.059506
13.465403
5.394259
0.521690
10.493592
10.235002
1.299183
3.420953
11.023930
0.074096
1.931998
1.385176
4.337994
9.456308
1.885587
2.103593
4.291448
3.115243
1.859568
0.597927
3.349971
3.086411
13.287459
3.418465
0.729391
3.847258
0.196275
8.644667
7.142848
13.639343
0.316252
0.870912
0.507340
4.853320
14.010150
9.195554
6.911068
3.290314
1.685014
13.373158
6.376008
3.543261
4.654050
12.736490
11.464961
2.175906
13.530616
1.358667
3.780808
15.531333
0.131923
0.528677
0.887091
1.432890
3.718100
9.825554
9.082562
4.940644
14.997915
1.141959
4.128627
5.478223
1.723003
14.483771
0.644058
1.109493
0.660852
3.914057
0.340687
0.278903
11.218931
0.232824
4.120715
13.776088
14.742990
0.051933
0.977797
3.209813
0.366136
1.292733
9.125907
3.417536
0.115112
16.088856
7.578521
0.089559
13.123935
2.330945
6.290211
0.457095
15.135640
1.477656
5.307436
11.913931
1.158770
6.566960
14.233516
0.298726
2.820357
0.994490
3.532069
4.960124
0.043627
5.442586
0.605190
14.402569
1.702945
15.893063
2.488374
14.638667
5.680733
0.016146
5.039825
1.681175
12.476022
4.501338
13.124561
0.277279
0.798991
3.599435
2.756259
16.945558
1.574030
1.313312
12.839488
12.739727
14.246884
6.426466
1.009543
0.097798
0.405232
3.271642
0.929779
1.109024
2.104575
4.172965
0.584749
3.243707
1.548237
0.253756
13.540943
16.911694
12.996400
5.418878
15.179296
12.539479
2.832474
11.432127
0.139469
0.056418
0.159519
0.326398
12.023816
1.455432
1.927545
0.074308
3.052804
4.982503
0.539838
15.810580
5.030334
17.505199
1.789910
3.304597
8.775027
0.663340
0.133874
3.595208
12.971531
14.656565
13.636215
3.271419
5.434606
0.723797
0.257746
1.669865
0.045268
12.400311
3.620848
17.376906
13.265472
13.754483
16.601293
0.424476
9.289852
3.134713
0.467863
3.504700
8.428984
2.769282
15.977215
1.063880
0.000000
14.649086
0.000000
0.388922
2.411792
3.126112
0.991723
0.901466
1.672744
0.043224
4.425935
16.997730
4.602818
3.936321
0.836035
12.230250
8.296722
1.304829
0.674573
12.118253
0.194104
1.465241
1.317435
11.036216
0.815003
7.576480
14.195137
13.579544
0.206978
1.047542
0.737019
12.232967
9.471468
15.734359
5.300313
9.965160
5.194966
0.598441
0.228751
4.240003
1.660342
8.679489
16.712857
0.174550
1.457394
1.133084
16.787654
15.309482
4.946580
6.155631
12.054398
1.516587
3.192135
0.096014
0.088808
1.543524
0.617286
2.509291
12.639647
2.522873
9.342548
14.851783
3.675065
0.093485
4.037890
3.970410
0.035811
0.905138
13.474817
13.193285
2.153180
4.751439
1.127913
0.034692
0.207122
7.470019
0.004130
5.107030
11.301302
0.110208
0.126905
0.575071
16.142395
10.820281
14.539355
2.260764
2.053965
13.560497
11.332742
1.621698
12.576969
0.297846
0.128704
0.063499
15.435982
3.427392
12.282639
11.832058
12.139842
13.395916
2.434964
11.993486
11.945196
5.983866
0.532616
3.067768
9.087782
3.327256
15.927962
0.017282
0.063519
0.033000
2.002966
14.266185
2.049921
12.500842
13.691207
0.762467
12.308212
4.939606
13.847547
2.606942
8.942555
0.122147
0.035243
13.779381
0.034835
0.578503
2.027138
16.784238
0.788750
0.070464
6.935747
13.815758
4.854870
2.960657
14.054809
11.644112
9.504281
11.909265
4.374926
14.169409
6.154317
0.024971
11.753347
5.347422
3.226211
1.803060
0.245841
14.074541
11.609632
12.638794
0.184798
0.000000
8.564087
3.007442
0.811129
0.000000
0.037557
0.136738
12.145065
1.614720
4.382898
4.223361
0.073856
7.628139
4.161031
5.706409
0.090815
13.196516
11.320084
0.000000
0.043264
0.000000
0.067298
0.023818
8.942409
11.957372
16.688268
16.334782
3.097934
15.153812
6.564729
0.000000
13.715460
5.757466
1.658546
5.315293
11.291131
10.623923
8.281753
11.051526
10.516331
1.464859
12.764782
7.787405
2.577618
17.626134
2.571100
6.708874
17.904119
11.980614
0.073976
1.870630
9.459176
4.958599
2.586127
15.219243
1.978365
2.982301
4.176185
12.247583
5.628100
0.000000
0.000000
0.121262
0.099378
13.625247
17.061909
0.039941
2.449303
9.591419
3.505998
0.385041
3.351569
0.040442
2.652106
8.018636
15.123077
0.022172
0.061977
3.386299
6.537606
4.291724
4.943578
4.958362
16.413879
11.865811
0.148920
10.429088
2.751198
8.464437
13.507926
2.697857
2.301407
0.030049
5.983847
10.429542
6.942710
17.059667
13.165079
9.054171
3.427804
11.743138
4.151898
3.368509
0.173748
14.363680
0.000000
8.434261
0.775296
13.471256
12.974921
11.185595
3.396743
11.608920
5.752109
14.308720
15.050735
11.159017
11.954685
6.143936
2.196344
3.990296
1.279736
5.302577
9.016088
7.398632
13.856459
2.906361
7.026371
7.088487
12.309404
10.684607
17.155371
10.811640
8.838811
10.194327
11.457786
6.003425
7.364708
8.101899
11.970372
12.068564
5.134075
9.375990
10.455897
12.926408
4.473777
6.199250
11.428302
3.116166
0.060450
18.121789
16.793658
10.254123
14.704745
11.614327
3.239575
11.640422
3.241433
2.484138
13.613680
3.899085
15.176707
2.753126
11.350783
11.038113
14.290527
11.187124
6.167111
12.183015
2.301499
12.648255
1.626952
3.634693
11.513480
9.055175
8.477288
0.763257
6.942119
10.473197
10.993139
9.818426
11.264956
2.491034
7.389546
7.813775
4.048416
10.868809
7.591155
2.084520
8.871565
4.636580
1.722063
3.095026
1.004452
10.543589
2.187807
1.402802
4.003005
1.196197
4.099717
2.414945
2.321412
4.471728
2.292896
1.342717
11.204634
11.770389
3.963852
0.944163
5.896761
6.478021
9.440583
4.400749
10.104406
3.702340
10.332750
12.394052
7.079868
1.624886
1.593867
8.530040
4.805889
4.045470
3.812739
2.791359
12.177018
11.731087
1.158295
6.039863
3.429686
4.447675
11.374303
2.567794
11.463355
7.076948
5.751143
10.838770
8.712846
5.824407
8.790923
11.322650
9.556703
10.393952
12.207809
2.635496
1.554568
6.813578
10.160803
12.598890
8.331140
10.022258
16.117190
1.951048
4.954268
0.381914
6.101457
9.632115
13.120448
10.321523
13.619610
15.107622
16.862264
16.325270
12.037133
2.217331
9.748313
1.318815
5.728323
12.138739
10.894521
10.438556
1.541986
12.795410
15.507488
9.649171
4.971155
3.278019
7.622916
9.968737
3.190417
4.407395
1.231021
4.905135
8.162293
11.152026
1.648303
13.251106
5.861062
10.048511
9.221124
7.453056
0.606129
0.427708
2.221199
3.019995
11.222714
10.401683
2.280484
5.382120
2.287927
8.760211
10.205347
8.011818
9.131358
4.247441
1.531080
3.667068
11.444945
7.044710
1.910320
9.274895
6.118313
1.379781
1.595402
2.391702
10.362958
1.034098
2.000554
3.261210
1.609263
7.992326
11.590905
9.184157
3.048352
11.474011
11.186309
17.102125
1.566768
2.141178
14.994349
10.630308
12.292120
9.519931
5.610313
6.009936
2.731864
1.002844
10.102044
9.623491
1.273613
9.596564
0.892073
4.717216
1.992210
11.173505
6.311228
1.418068
10.641729
3.779548
4.699706
8.310333
1.793565
2.042685
2.732416
11.759269
9.575212
11.289275
6.019388
10.336975
4.237314
15.359893
0.179280
6.873046
0.913920
8.848160
8.337812
9.800219
6.694580
2.395747
4.826476
9.153891
9.127288
7.068515
6.190307
1.659397
11.739567
1.089593
3.977212
7.452991
3.484354
1.518839
10.355411
12.373931
10.531317
0.888337
7.353480
9.188894
10.968450
8.699303
5.135336
2.431516
1.530305
10.909062
1.404442
0.867734
7.727460
1.724381
1.306696
12.789787
6.317552
13.544967
0.099373
5.418913
9.460994
7.236054
0.988441
4.623143
7.288663
4.637737
2.096962
10.261531
5.107063
13.660205
14.070412
15.899403
16.716173
1.731223
3.282914
1.326706
2.739447
6.383199
17.909093
11.680078
2.196074
8.291029
3.858719
15.349504
6.995525
12.126007
10.075917
3.566236
2.263538
4.244853
1.328230
8.071995
1.452102
8.370357
2.102544
11.293836
11.639246
7.172320
0.000000
0.945027
0.202364
16.484524
9.150869
3.646323
8.881082
2.510984
15.859962
1.670470
1.914364
17.267117
7.530296
0.015054
8.599446
6.966199
4.313080
6.486156
16.434325
2.134597
16.599563
0.000000
0.611448
2.156621
7.788214
6.783713
14.669497
10.843552
13.406931
9.983209
13.530108
8.209861
4.175876
7.815542
4.778144
7.033220
0.548898
8.810681
3.737752
9.434498
1.198112
2.501078
1.577304
7.738501
0.000000
1.666959
0.757011
12.290401
13.789860
10.824510
6.716913
13.908620
3.990288
9.941016
15.933634
0.718492
16.713457
10.151819
1.853180
2.126527
13.179852
5.381179
2.079746
1.576763
0.126545
12.057056
3.644735
6.115585
0.550710
7.972029
2.028832
11.920664
13.290547
2.674888
6.137958
3.440648
2.790914
1.379816
4.306923
4.479386
9.030417
10.212267
4.424542
2.222682
0.685191
5.609906
2.898355
4.330590
1.095344
2.626531
3.411612
0.968476
5.412011
3.777336
1.456949
3.521646
2.485203
4.078847
0.000000
1.474520
4.136221
9.890165
3.071187
3.652916
4.364177
2.124761
10.440185
1.022636
6.624486
1.823002
4.493228
7.373543
3.088627
0.148732
1.583343
10.215810
8.740629
0.324773
0.106412
9.226530
0.231248
4.088523
14.302796
1.953247
2.251809
3.067734
2.279468
0.053683
0.250751
8.361619
2.060379
3.652914
3.711715
7.527960
2.890182
5.641114
3.790167
2.013302
0.041793
2.468103
1.922417
4.274932
11.116277
3.444970
0.000000
1.502862
3.067372
3.203574
8.126579
2.905419
5.673354
1.126743
1.751793
2.818366
1.333398
6.842711
12.987963
1.779036
4.613306
1.051606
9.583643
0.368009
2.622662
6.178422
0.305152
3.832033
14.023713
4.577180
8.282147
1.222628
2.773385
0.648616
0.655725
0.098807
6.441329
0.447455
0.189206
5.188295
3.915600
2.046885
3.953990
6.893256
4.802326
6.537969
0.158762
4.606963
2.028500
3.987379
5.717925
7.014206
3.330098
0.126797
0.046495
4.278201
8.968456
5.077567
9.404587
5.610143
4.046705
2.087402
0.367058
2.300293
0.385371
14.324674
7.159864
6.648732
0.494969
15.458539
0.773872
3.094513
2.133791
2.024079
2.792275
15.420337
0.507460
3.787628
0.000000
0.131215
1.986393
1.204829
0.200458
0.600327
4.564135
3.206156
3.864910
12.212750
4.462950
3.574776
0.275506
4.308517
13.763435
0.878537
2.007595
0.493860
2.685964
1.419005
4.309672
6.378412
6.149107
13.948954
0.000000
2.494234
2.269840
2.193716
2.696757
3.580700
0.157938
4.779913
14.017905
0.074729
2.056464
0.502620
4.604704
2.969986
0.391351
3.378063
2.672924
5.327536
2.122788
9.352591
14.933108
17.363168
0.046060
5.194307
2.378102
3.456919
5.623980
2.526706
0.027587
6.423973
0.803885
13.855169
9.908183
0.130353
5.382654
6.788317
2.806223
1.497474
5.228608
0.016885
0.065826
0.287353
0.410941
0.048076
0.264747
0.021277
0.686114
7.319089
1.037597
0.962545
0.359445
0.039621
0.943328
7.315031
5.515209
15.466121
2.084015
1.488452
5.874120
2.727603
0.126403
2.791322
0.000000
8.627365
1.139112
15.419115
1.155705
3.097864
15.135895
3.162387
1.163514
13.516758
4.419855
0.000000
10.076354
2.991543
0.667014
0.354623
0.413503
0.676213
3.981400
5.584994
1.959475
0.652887
1.007660
6.267410
0.775530
9.413049
0.501229
0.081900
0.000000
2.386084
0.654944
0.000000
6.932670
5.614616
14.659512
6.436011
0.365132
3.477216
0.908611
3.932226
14.939823
3.986320
5.027578
7.330106
0.904653
2.478438
9.120206
3.349845
2.147381
0.000000
3.055154
3.188439
2.287786
5.838884
0.453615
1.146782
3.665072
9.505443
13.984617
0.289269
0.000000
1.245907
0.663075
6.689262
5.925688
0.075861
0.161696
16.013897
1.079024
0.069072
0.108786
0.757002
2.243872
1.058325
0.122515
17.094165
0.053678
4.568539
14.109111
0.428893
0.264018
0.113758
6.686841
0.347671
0.373017
3.091757
0.429844
0.297953
5.072240
17.110646
3.237803
7.451931
2.302617
2.387863
6.663334
1.544496
1.632350
0.529059
0.181465
1.963750
0.831032
0.594429
2.473687
1.417673
0.700206
1.982840
7.067078
0.822097
2.770118
3.298870
0.440056
0.442636
0.821651
2.712286
0.968905
5.743786
0.000000
2.707144
15.807853
0.601311
1.250110
0.831926
15.028193
0.782415
1.576694
0.840843
17.043105
8.870648
6.905678
8.968449
6.917411
1.931714
14.088769
0.128850
0.539307
3.052674
0.028662
0.195394
2.456206
2.320220
0.855717
0.218547
0.082039
0.258997
0.765698
2.094153
0.734434
0.721590
0.394784
1.751528
2.101745
4.043321
0.488922
12.363252
0.324896
0.883418
6.466453
3.261434
0.361474
2.270394
0.162535
14.078148
5.090882
4.149747
4.863860
0.390789
0.992236
1.122589
0.836141
0.821133
16.969182
0.317068
13.712489
5.048363
0.245062
1.359274
2.233320
0.000000
0.936015
2.026361
13.311141
1.160979
4.773928
2.755463
0.950387
0.559700
6.850235
0.000000
3.190024
0.317395
0.000000
5.205419
4.131620
2.365727
1.207568
2.898970
1.640652
6.748552
2.807784
5.004180
0.583807
6.760187
0.201198
1.251557
1.020381
0.000000
0.009594
0.759467
2.195398
0.231479
0.522001
4.700381
14.156361
0.346314
0.347942
0.052343
0.486083
1.695975
0.135141
0.075271
4.513745
2.848964
0.121213
0.000000
0.904494
0.742504
0.320586
5.399831
5.230015
6.602550
0.163935

SCALARS pdf double 1
LOOKUP_TABLE default
0.000210
0.000620
0.000257
0.000210
0.000197
0.000175
0.000222
0.000608
0.000220
0.000159
0.000204
0.000213
0.000211
0.000227
0.000326
0.000208
0.000218
0.000390
0.000216
0.000123
0.000210
0.000208
0.000353
0.001388
0.000351
0.001293
0.000323
0.001284
0.000213
0.000292
0.000398
0.000223
0.000867
0.000212
0.000513
0.001390
0.000428
0.001419
0.000251
0.000211
0.000227
0.000220
0.000316
0.000223
0.000483
0.000209
0.000198
0.000213
0.000291
0.000212
0.000412
0.000163
0.001643
0.000213
0.001432
0.000880
0.000212
0.000206
0.000214
0.000169
0.000362
0.001267
0.000188
0.000275
0.000210
0.000492
0.000450
0.000135
0.000090
0.000966
0.000207
0.000388
0.000210
0.000118
0.001860
0.000401
0.001801
0.000508
0.000325
0.000371
0.000544
0.000333
0.000448
0.000502
0.000106
0.000238
0.000385
0.000302
0.000216
0.000318
0.000494
0.000395
0.000672
0.000485
0.000214
0.000572
0.000417
0.000324
0.000233
0.001083
0.000210
0.000657
0.001883
0.001054
0.001489
0.000142
0.001320
0.000192
0.001646
0.000223
0.000355
0.000217
0.000217
0.001168
0.001996
0.000460
0.000586
0.001814
0.000214
0.000202
0.000337
0.000782
0.001599
0.000212
0.000241
0.000203
0.000214
0.000436
0.000515
0.000210
0.000437
0.000402
0.000987
0.000167
0.001309
0.000102
0.001209
0.000215
0.000370
0.000135
0.000357
0.000165
0.000271
0.000381
0.001565
0.001134
0.000316
0.000225
0.000211
0.000318
0.000221
0.000347
0.000507
0.000210
0.000214
0.000256
0.000224
0.000206
0.000213
0.001091
0.000218
0.000697
0.000231
0.000399
0.000223
0.000236
0.000739
0.001635
0.001667
0.000212
0.000596
0.001150
0.000444
0.000975
0.001179
0.001117
0.001902
0.000389
0.001066
0.000203
0.000335
0.000208
0.001250
0.000182
0.000228
0.000311
0.000286
0.000347
0.002143
0.000362
0.000622
0.000230
0.000494
0.000225
0.000213
0.001357
0.000214
0.000447
0.000331
0.000441
0.000401
0.000424
0.000243
0.000767
0.000225
0.000725
0.000207
0.000226
0.000285
0.001447
0.000537
0.000569
0.001157
0.000210
0.000564
0.000366
0.000997
0.001528
0.000437
0.000350
0.000544
0.000216
0.000215
0.001586
0.000739
0.000450
0.000409
0.000622
0.001081
0.000237
0.000835
0.000602
0.000211
0.000280
0.000531
0.001067
0.000214
0.002056
0.000231
0.001238
0.000516
0.000337
0.000494
0.001208
0.001925
0.000946
0.001124
0.000677
0.000215
0.000947
0.001047
0.000224
0.000346
0.001236
0.000251
0.000229
0.000229
0.000307
0.000885
0.000220
0.000223
0.000511
0.000392
0.000219
0.000239
0.000552
0.000618
0.001300
0.000244
0.000235
0.000450
0.000240
0.000617
0.000637
0.001501
0.000162
0.000209
0.000217
0.000378
0.001528
0.001120
0.000631
0.000316
0.000281
0.001586
0.000316
0.000240
0.000458
0.001022
0.001510
0.000222
0.001776
0.000227
0.000437
0.002086
0.000218
0.000204
0.000222
0.000308
0.000782
0.000842
0.000793
0.000298
0.001678
0.000298
0.000275
0.001203
0.000226
0.001383
0.000164
0.000268
0.000214
0.000381
0.000216
0.000213
0.001383
0.000212
0.000317
0.001391
0.002166
0.000210
0.000230
0.000246
0.000210
0.000218
0.000944
0.000777
0.000204
0.002320
0.000722
0.000086
0.001325
0.000229
0.000718
0.000210
0.001857
0.000330
0.000470
0.001487
0.000222
0.000317
0.001527
0.000211
0.000437
0.000262
0.000812
0.000570
0.000197
0.000904
0.000209
0.001622
0.000219
0.001961
0.000229
0.001947
0.001286
0.000133
0.000738
0.000214
0.001509
0.000404
0.001467
0.000216
0.000258
0.000299
0.000408
0.001830
0.000222
0.000211
0.001242
0.001411
0.001408
0.000558
0.000304
0.000297
0.000311
0.000719
0.000222
0.000220
0.000287
0.000778
0.000212
0.000224
0.000224
0.000211
0.000945
0.002094
0.000892
0.000962
0.001983
0.001277
0.000346
0.001420
0.000214
0.000217
0.000215
0.000212
0.001075
0.000221
0.000217
0.000192
0.000311
0.001019
0.000233
0.002038
0.000400
0.002065
0.000220
0.000222
0.000862
0.000210
0.000215
0.000303
0.001175
0.001136
0.001836
0.000705
0.000668
0.000197
0.000212
0.000364
0.000217
0.000982
0.000199
0.001877
0.000960
0.001672
0.002047
0.000217
0.000789
0.000405
0.000210
0.000399
0.000800
0.000205
0.002291
0.000284
0.000198
0.001822
0.000218
0.000218
0.000446
0.000393
0.000219
0.000263
0.000342
0.000217
0.000363
0.001834
0.000733
0.000760
0.000301
0.001492
0.000882
0.000230
0.000217
0.001275
0.000216
0.000222
0.000323
0.001520
0.000230
0.000771
0.001759
0.001867
0.000210
0.000248
0.000212
0.001225
0.000763
0.001827
0.000458
0.001004
0.000796
0.000231
0.000208
0.000494
0.000231
0.000830
0.002123
0.000221
0.000342
0.000227
0.001889
0.002338
0.000584
0.000733
0.001565
0.000224
0.000264
0.000213
0.000242
0.000241
0.000149
0.000227
0.001494
0.000386
0.000828
0.001172
0.000237
0.000191
0.000754
0.000484
0.000189
0.000227
0.001491
0.000927
0.000703
0.000326
0.000242
0.000223
0.000098
0.000765
0.000218
0.000329
0.001402
0.000218
0.000218
0.000211
0.001811
0.000844
0.001582
0.000256
0.000219
0.001568
0.001306
0.000234
0.000898
0.000224
0.000220
0.000168
0.001951
0.000782
0.001576
0.001209
0.001535
0.001444
0.000221
0.001098
0.001358
0.000902
0.000211
0.000217
0.000811
0.000236
0.002024
0.000218
0.000219
0.000217
0.000222
0.001577
0.000229
0.001251
0.000986
0.000229
0.000948
0.000503
0.001078
0.000224
0.000760
0.000212
0.000214
0.001308
0.000223
0.000217
0.000363
0.001897
0.000209
0.000205
0.001360
0.001408
0.000272
0.000209
0.001245
0.001214
0.001019
0.001278
0.000251
0.001105
0.001307
0.000197
0.001474
0.000222
0.000392
0.000223
0.000068
0.001557
0.001223
0.001070
0.000000
0.000162
0.000630
0.000352
0.000193
0.000219
0.000216
0.000161
0.001514
0.000231
0.000731
0.000227
0.000203
0.001085
0.000739
0.000705
0.000218
0.001636
0.001120