# vtk DataFile Version 2.0
scotia rupture times
ASCII
DATASET POLYDATA
POINTS 1100 double
  3.1180780000000000E+06   2.8124700000000000E+06  -7.4757309599999999E+03
  3.1208200000000000E+06   2.8551760000000000E+06  -8.0150952100000004E+03
  3.1190890000000000E+06   2.8267000000000000E+06  -7.6399028300000000E+03
  3.1200500000000000E+06   2.8409320000000000E+06  -7.8120810499999998E+03
  3.1137000000000000E+06   2.8112560000000000E+06  -7.6825288099999998E+03
  3.1115750000000000E+06   2.7903000000000000E+06  -7.7742719699999998E+03
  3.1066640000000000E+06   2.7889790000000000E+06  -7.7389057599999996E+03
  3.1037600000000000E+06   2.7700200000000000E+06  -7.5410991199999999E+03
  3.0987270000000000E+06   2.7675090000000000E+06  -7.4916040000000003E+03
  3.0963720000000000E+06   2.7540300000000000E+06  -7.2515790999999999E+03
  3.0907950000000000E+06   2.7517410000000000E+06  -7.3368051800000003E+03
  3.0880840000000000E+06   2.7389610000000000E+06  -7.0941000999999997E+03
  3.0837640000000000E+06   2.7370880000000000E+06  -7.2313349600000001E+03
  3.0806480000000000E+06   2.7247670000000000E+06  -7.0353232399999997E+03
  3.0766010000000000E+06   2.7227780000000000E+06  -7.2285419899999997E+03
  3.0732800000000000E+06   2.7073070000000000E+06  -7.2592319299999999E+03
  3.0689720000000000E+06   2.7068880000000000E+06  -7.4599438499999997E+03
  3.0588740000000000E+06   2.6808120000000000E+06  -8.0157700199999999E+03
  3.0639230000000000E+06   2.6938500000000000E+06  -7.7378569299999999E+03
  3.0465850000000000E+06   2.6781330000000000E+06  -8.3014853500000008E+03
  3.0433820000000000E+06   2.6661130000000000E+06  -8.5805498000000007E+03
  3.0383660000000000E+06   2.6634840000000000E+06  -8.6848251999999993E+03
  3.0365960000000000E+06   2.6575530000000000E+06  -8.8145820299999996E+03
  3.0151270000000000E+06   2.6351740000000000E+06  -9.1862822300000007E+03
  3.0233020000000000E+06   2.6488680000000000E+06  -9.0108925799999997E+03
  3.0097280000000000E+06   2.6336710000000000E+06  -9.2041689499999993E+03
  3.0080060000000000E+06   2.6282450000000000E+06  -9.2226113299999997E+03
  2.9911990000000000E+06   2.6136450000000000E+06  -9.0072773400000005E+03
  2.9978620000000000E+06   2.6225450000000000E+06  -9.1464668000000001E+03
  2.9635280000000000E+06   2.5912340000000000E+06  -8.1509218799999999E+03
  2.9746470000000000E+06   2.6058030000000000E+06  -8.8304804700000004E+03
  2.9350270000000000E+06   2.5744830000000000E+06  -7.4932978499999999E+03
  2.9498990000000000E+06   2.5814590000000000E+06  -7.7282758800000001E+03
  2.9336280000000000E+06   2.5698480000000000E+06  -7.3029868200000001E+03
  2.9127640000000000E+06   2.5660600000000000E+06  -7.2338637699999999E+03
  2.9119560000000000E+06   2.5610140000000000E+06  -6.9741831099999999E+03
  2.9043910000000000E+06   2.5596220000000000E+06  -6.8299121100000002E+03
  2.9019930000000000E+06   2.5544100000000000E+06  -6.4938671899999999E+03
  2.8760370000000000E+06   2.5511220000000000E+06  -6.2434448199999997E+03
  2.8890150000000000E+06   2.5527660000000000E+06  -6.3686557599999996E+03
  2.8751320000000000E+06   2.5468480000000000E+06  -6.0003569299999999E+03
  2.8575410000000000E+06   2.5397270000000000E+06  -5.6677851600000004E+03
  2.8242000000000000E+06   2.5367760000000000E+06  -5.7187260699999997E+03
  2.8408710000000000E+06   2.5382520000000000E+06  -5.6932558600000002E+03
  2.8229880000000000E+06   2.5323940000000000E+06  -5.3102578100000001E+03
  2.7940700000000000E+06   2.5302280000000000E+06  -5.1144540999999999E+03
  2.8085450000000000E+06   2.5310890000000000E+06  -5.2359750999999997E+03
  2.7924540000000000E+06   2.5252360000000000E+06  -4.7272021500000001E+03
  2.7009180000000000E+06   2.5242260000000000E+06  -4.4562641599999997E+03
  2.7771450000000000E+06   2.5239630000000000E+06  -4.9364570299999996E+03
  2.7618600000000000E+06   2.5246540000000000E+06  -5.3685478499999999E+03
  2.7465480000000000E+06   2.5252860000000000E+06  -5.6492539100000004E+03
  2.7311910000000000E+06   2.5248130000000000E+06  -5.6341689500000002E+03
  2.7160230000000000E+06   2.5227090000000000E+06  -5.1167412100000001E+03
  2.6931650000000000E+06   2.5322070000000000E+06  -4.3956210899999996E+03
  2.6907430000000000E+06   2.5589940000000000E+06  -9.1781376999999993E+03
  2.6926440000000000E+06   2.5457630000000000E+06  -6.2399130900000000E+03
  2.6860160000000000E+06   2.5588570000000000E+06  -9.2568115199999993E+03
  2.6830800000000000E+06   2.5954630000000000E+06  -3.0440439500000000E+04
  2.6850820000000000E+06   2.5725660000000000E+06  -1.3382990200000000E+04
  2.6839420000000000E+06   2.5844800000000000E+06  -2.1191880900000000E+04
  2.6774570000000000E+06   2.5945650000000000E+06  -3.3033269500000002E+04
  2.6741190000000000E+06   2.7207100000000000E+06  -2.6232809399999998E+05
  2.6772930000000000E+06   2.6045580000000000E+06  -4.4819488299999997E+04
  2.6742900000000000E+06   2.6121310000000000E+06  -5.7970671900000001E+04
  2.6750300000000000E+06   2.6205770000000000E+06  -7.0503437500000000E+04
  2.6744200000000000E+06   2.6282100000000000E+06  -8.3940617199999993E+04
  2.6742390000000000E+06   2.6354630000000000E+06  -9.7600578099999999E+04
  2.6739220000000000E+06   2.6422740000000000E+06  -1.1148660200000000E+05
  2.6741820000000000E+06   2.6491640000000000E+06  -1.2533160200000000E+05
  2.6744190000000000E+06   2.6559520000000000E+06  -1.3922709400000001E+05
  2.6743950000000000E+06   2.6625900000000000E+06  -1.5320009400000001E+05
  2.6747730000000000E+06   2.6695360000000000E+06  -1.6701029699999999E+05
  2.6748340000000000E+06   2.6764670000000000E+06  -1.8080600000000000E+05
  2.6742700000000000E+06   2.6832150000000000E+06  -1.9470059400000001E+05
  2.6743250000000000E+06   2.6903740000000000E+06  -2.0841450000000000E+05
  2.6742660000000000E+06   2.6976640000000000E+06  -2.2205879699999999E+05
  2.6746310000000000E+06   2.7053550000000000E+06  -2.3547309400000001E+05
  2.6744400000000000E+06   2.7129900000000000E+06  -2.4892570300000001E+05
  2.8531070000000000E+06   2.9786860000000000E+06  -2.6054109400000001E+05
  2.8472850000000000E+06   2.9646060000000000E+06  -2.6244059399999998E+05
  2.8434150000000000E+06   2.9497740000000000E+06  -2.6171029699999999E+05
  2.8387600000000000E+06   2.9352630000000000E+06  -2.6273159399999998E+05
  2.8358850000000000E+06   2.9202680000000000E+06  -2.6148290599999999E+05
  2.8321820000000000E+06   2.9054510000000000E+06  -2.6207990599999999E+05
  2.8292370000000000E+06   2.8904030000000000E+06  -2.6207740599999999E+05
  2.8277950000000000E+06   2.8751780000000000E+06  -2.6063990599999999E+05
  2.8278520000000000E+06   2.8598410000000000E+06  -2.6074040599999999E+05
  2.8292090000000000E+06   2.8446370000000000E+06  -2.6231250000000000E+05
  2.8314390000000000E+06   2.8295010000000000E+06  -2.6312431199999998E+05
  2.8315870000000000E+06   2.8142450000000000E+06  -2.6290240600000002E+05
  2.8276620000000000E+06   2.7995210000000000E+06  -2.6241540600000002E+05
  2.8203180000000000E+06   2.7862170000000000E+06  -2.6303459399999998E+05
  2.8116140000000000E+06   2.7739270000000000E+06  -2.6247681199999998E+05
  2.8005890000000000E+06   2.7633450000000000E+06  -2.6342668800000002E+05
  2.7895640000000000E+06   2.7528110000000000E+06  -2.6192170300000001E+05
  2.7766180000000000E+06   2.7446790000000000E+06  -2.6209940599999999E+05
  2.7628860000000000E+06   2.7378660000000000E+06  -2.6218440600000002E+05
  2.7486670000000000E+06   2.7323260000000000E+06  -2.6195979699999999E+05
  2.7338210000000000E+06   2.7284490000000000E+06  -2.6225809399999998E+05
  2.7187390000000000E+06   2.7270950000000000E+06  -2.6435850000000000E+05
  2.7034010000000000E+06   2.7266450000000000E+06  -2.6506490600000002E+05
  2.6883320000000000E+06   2.7254780000000000E+06  -2.6489350000000000E+05
  3.1115610000000000E+06   2.9788200000000000E+06  -8.1241459999999997E+03
  3.0969250000000000E+06   2.9819350000000000E+06  -8.9179072300000007E+03
  3.0816460000000000E+06   2.9816310000000000E+06  -9.9400800799999997E+03
  3.0664530000000000E+06   2.9816330000000000E+06  -1.1891040000000001E+04
  3.0514790000000000E+06   2.9817930000000000E+06  -1.5098490200000000E+04
  3.0367640000000000E+06   2.9818160000000000E+06  -1.9175769499999999E+04
  3.0234600000000000E+06   2.9817710000000000E+06  -2.6562080099999999E+04
  3.0109730000000000E+06   2.9818890000000000E+06  -3.5408871099999997E+04
  3.0004380000000000E+06   2.9818620000000000E+06  -4.6527851600000002E+04
  2.9905250000000000E+06   2.9818680000000000E+06  -5.8170488299999997E+04
  2.9813470000000000E+06   2.9819130000000000E+06  -7.0433671900000001E+04
  2.9729600000000000E+06   2.9819460000000000E+06  -8.3245031199999998E+04
  2.9649910000000000E+06   2.9819090000000000E+06  -9.6323710900000005E+04
  2.9571480000000000E+06   2.9818430000000000E+06  -1.0948039800000000E+05
  2.9492080000000000E+06   2.9816860000000000E+06  -1.2240020299999999E+05
  2.9410300000000000E+06   2.9821780000000000E+06  -1.3527459400000001E+05
  2.9324620000000000E+06   2.9818550000000000E+06  -1.4796500000000000E+05
  2.9237540000000000E+06   2.9815380000000000E+06  -1.6055590599999999E+05
  2.9150880000000000E+06   2.9815210000000000E+06  -1.7317859400000001E+05
  2.9064220000000000E+06   2.9815950000000000E+06  -1.8580500000000000E+05
  2.8975560000000000E+06   2.9810270000000000E+06  -1.9828229699999999E+05
  2.8886450000000000E+06   2.9803270000000000E+06  -2.1072000000000000E+05
  2.8799560000000000E+06   2.9807140000000000E+06  -2.2331229699999999E+05
  2.8711630000000000E+06   2.9803100000000000E+06  -2.3584700000000000E+05
  2.8621350000000000E+06   2.9794980000000000E+06  -2.4819409400000001E+05
  3.1128220000000000E+06   2.9671890000000000E+06  -8.4247753900000007E+03
  3.1179420000000000E+06   2.9658400000000000E+06  -8.0703979499999996E+03
  3.1255640000000000E+06   2.8559640000000000E+06  -7.7750849600000001E+03
  3.1264340000000000E+06   2.8718550000000000E+06  -7.6847612300000001E+03
[...]
CELL_DATA 2061
SCALARS slip double 1
LOOKUP_TABLE default
  0.0000000000000000E+00
  0.0000000000000000E+00
  0.0000000000000000E+00
  7.2403562099999996E-01
  1.8230394999999999E-01
  8.0866053699999996E-02
  3.7586737400000000E-02
  0.0000000000000000E+00
  0.0000000000000000E+00
  3.9402148100000001E-01
  0.0000000000000000E+00
  1.1964083900000000E+00
  4.2833590500000002E-01
  0.0000000000000000E+00
  0.0000000000000000E+00
  2.0158805800000001E+00
  1.0070473000000000E+00
  4.2750911699999996E+00
  2.6682264800000000E+00
  1.3742126200000000E+00
  2.5695335899999998E+00
  4.6744322799999999E-01
  1.2778228500000000E+00
  1.6469176099999999E-01
  5.6085997799999998E-01
  0.0000000000000000E+00
  2.1916467000000001E-01
  9.0748749700000006E-02
  0.0000000000000000E+00
  0.0000000000000000E+00
  0.0000000000000000E+00
  9.1754533400000005E-02
  4.9912534699999997E-02
  7.3816263999999998E-03
  1.5333894600000000E-02
  1.3375116900000000E-01
  2.5901028500000001E-01
  0.0000000000000000E+00
  2.3540730800000001E-01
  1.1110664200000001E-01
  3.6034680899999998E-02
  0.0000000000000000E+00
  0.0000000000000000E+00
  0.0000000000000000E+00
  0.0000000000000000E+00
  2.9540976500000000E-02
  0.0000000000000000E+00
  0.0000000000000000E+00
  0.0000000000000000E+00
  0.0000000000000000E+00
  0.0000000000000000E+00
  0.0000000000000000E+00
  0.0000000000000000E+00
  2.0327702200000000E-01
  0.0000000000000000E+00
  1.1435763500000000E-01
  2.8355211000000002E-01
  2.0507894500000001E-01
  6.0703109900000003E-02
  3.5622894799999999E-02
  2.0172801600000001E-01
  3.4790650000000001E-01
  4.7221854299999998E-02
  2.5663515900000000E-01
  6.1257179799999999E-02
  2.8119343499999999E-01
  1.1720936000000000E-01
  0.0000000000000000E+00
  1.9220735100000000E-01
  0.0000000000000000E+00
  0.0000000000000000E+00
  0.0000000000000000E+00
  3.1890969700000001E-02
  7.0637688000000004E-02
  1.2213529600000000E-01
  0.0000000000000000E+00
  0.0000000000000000E+00
  2.9573090099999999E+00
  2.1795136899999998E+00
  4.7639460600000003E+00
  4.0116386400000001E+00
  6.0493588400000000E+00
  5.5960655199999998E+00
  5.0488095299999998E+00
  5.9322066299999996E+00
  4.0420260399999997E+00
  4.9789400099999996E+00
  2.4898240600000001E+00
  3.7861447300000002E+00
  1.1070538800000000E+00
  2.3932745500000001E+00
  4.6527612200000001E-01
  1.0648208900000000E+00
  2.9292675899999998E-01
  5.1822763699999996E-01
  7.9274123900000004E-01
  3.3859470500000000E-01
  1.5009359099999999E+00
  7.7167427499999997E-01
  9.9079585100000001E-01
  1.6547979100000001E+00
  9.1351723699999998E-01
  1.5335930600000001E+00
  1.6875934600000000E+00
  1.0663361499999999E+00
  1.8857262100000001E+00
  1.0388553100000000E+00
  1.9444153300000000E+00
  1.0707139999999999E+00
  2.5378360700000000E+00
  1.3415199499999999E+00
  1.0072820199999999E+00
  2.3261327700000001E+00
  3.5535615700000001E-01
  1.0497391199999999E+00
  2.3578280200000001E-01
  6.6652679400000003E-01
  1.2262735400000000E+00
  3.4095898299999999E-01
  4.2150554700000002E+00
  1.9289242000000000E+00
  1.3029353600000000E+00
  8.7503528600000002E-01
  2.5033590200000000E-01
  6.3217051299999993E-02
  0.0000000000000000E+00
  0.0000000000000000E+00
  0.0000000000000000E+00
  0.0000000000000000E+00
  2.1774299400000000E-01
  1.0233468599999999E-01
  0.0000000000000000E+00
  0.0000000000000000E+00
  0.0000000000000000E+00
  0.0000000000000000E+00
  0.0000000000000000E+00
  0.0000000000000000E+00
  0.0000000000000000E+00
  0.0000000000000000E+00
  0.0000000000000000E+00
  0.0000000000000000E+00
  0.0000000000000000E+00
  1.4509761299999999E-01
  1.0659949500000000E-01
  2.2333089300000001E-02
  6.4836040100000006E-02
  0.0000000000000000E+00
  1.2866482100000001E-01
  4.3568294500000000E-02
  9.8069161200000005E-02
  1.3475223400000000E-02
  0.0000000000000000E+00
  0.0000000000000000E+00
  0.0000000000000000E+00
  0.0000000000000000E+00
  0.0000000000000000E+00
  7.1428164799999999E-02
  0.0000000000000000E+00
  0.0000000000000000E+00
  1.1994859600000000E-01
  0.0000000000000000E+00
  3.5913345200000002E-01
  2.2882705900000000E-01
  0.0000000000000000E+00
  0.0000000000000000E+00
  0.0000000000000000E+00
  0.0000000000000000E+00
  0.0000000000000000E+00
  2.7267536100000000E-02
  0.0000000000000000E+00
  0.0000000000000000E+00
  0.0000000000000000E+00
  0.0000000000000000E+00
  0.0000000000000000E+00
  6.8413220299999994E-02
  9.3333944700000004E-02
  2.8723713800000000E-01
  1.2007918200000001E-01
  2.5523945700000000E-01
  2.0324336000000001E-01
  5.6415343299999998E-01
  0.0000000000000000E+00
  4.1572889699999999E-01
  0.0000000000000000E+00
  0.0000000000000000E+00
  4.2166728500000000E-02
  0.0000000000000000E+00
  2.7446669299999998E-01
  4.6476278500000003E-02
  3.3416032800000001E-01
  1.4460513000000000E-01
  9.6496380899999998E-02
  3.7552762000000001E-01
  5.3735233799999997E-02
  4.2714852100000000E-01
  0.0000000000000000E+00
  2.7855664499999999E-01
  0.0000000000000000E+00
  8.3184927699999994E-02
  0.0000000000000000E+00
  7.0560626700000004E-02
  3.2198792700000001E-01
  6.6851757499999998E-02
  4.5107761000000002E-01
  2.2389033400000000E-01
  1.4689829900000001E-01
  0.0000000000000000E+00
  1.3713774100000001E-01
  4.6233791900000001E-02
  0.0000000000000000E+00
  0.0000000000000000E+00
  0.0000000000000000E+00
  0.0000000000000000E+00
  2.8619708500000000E-02
  1.2334816899999999E-01
  2.4011293100000000E-01
  0.0000000000000000E+00
  7.3322996500000001E-02
  3.2404807200000002E-01
  9.6517257400000001E-02
  2.5361526000000001E-01
  9.4073593600000005E-02
  1.9962604300000000E-01
  9.1244585800000000E-02
  6.3986062999999996E-02
  1.0332319099999999E-01
  0.0000000000000000E+00
  2.6262304199999997E-01
  8.8585339499999999E-02
  7.7285863499999996E-02
  0.0000000000000000E+00
  2.1525970100000000E-01
  5.2201934200000001E-02
  1.0470771800000001E-01
  0.0000000000000000E+00
  0.0000000000000000E+00
  0.0000000000000000E+00
  9.9493593000000005E-02
  0.0000000000000000E+00
  1.1281893400000000E-01
  8.0213315800000004E-02
  4.9228928999999998E-02
  0.0000000000000000E+00
  0.0000000000000000E+00
  4.3999992299999999E-02
  1.3148553700000001E-01
  2.4253793100000001E-01
  1.2051740300000000E-01
  2.3653383600000000E-01
  1.9067987799999998E-02
  1.4946931599999999E-01
  7.0819944100000004E-02
  9.8227210300000006E-02
  0.0000000000000000E+00
  7.0621646900000001E-02
  5.5985189999999997E-02
  1.3996200300000000E-01
  8.2592643800000004E-02
  1.5143927900000001E-01
  0.0000000000000000E+00
  8.2723364199999996E-02
  5.2120584999999997E-02
  0.0000000000000000E+00
  1.1972188900000000E-01
  0.0000000000000000E+00
  1.4956606900000000E-01
  2.2023757900000000E-02
  9.8990038000000002E-02
  0.0000000000000000E+00
  0.0000000000000000E+00
  0.0000000000000000E+00
  1.0159164699999999E-01
  0.0000000000000000E+00
  1.0744568000000000E-01
  3.0724773200000000E-02
  1.2287608500000000E-01
  0.0000000000000000E+00
  2.4507510699999999E-01
  3.9491862099999997E-02
  0.0000000000000000E+00
  2.3506034900000000E-01
  0.0000000000000000E+00
  0.0000000000000000E+00
  0.0000000000000000E+00
  0.0000000000000000E+00
  0.0000000000000000E+00
  0.0000000000000000E+00
  0.0000000000000000E+00
  0.0000000000000000E+00
  0.0000000000000000E+00
  0.0000000000000000E+00
  0.0000000000000000E+00
  0.0000000000000000E+00
  0.0000000000000000E+00
  0.0000000000000000E+00
  0.0000000000000000E+00
  0.0000000000000000E+00
  0.0000000000000000E+00
  0.0000000000000000E+00
  5.4994875200000004E-01
  2.7357256400000002E-01
  8.9375567400000000E-01
  4.9207896000000001E-01
  4.3570929800000002E-01
  4.3244269499999999E-01
  1.7560867999999999E-01
  2.4939304600000001E-01
  0.0000000000000000E+00
  7.8397177200000001E-02
  1.2039706900000000E-01
  1.5287354600000000E-01
  2.4298296899999999E-01
  2.2721810600000000E-01
  5.7119339700000005E-01
  5.7711791999999995E-01
  2.4122405100000002E+00
  1.1854660500000000E+00
  3.2574453399999999E+00
  2.3129527599999999E+00
  2.2077753499999999E+00
  3.1184060599999999E+00
  6.8449181299999995E-01
  1.2381498799999999E+00
  5.8233427999999998E-01
  8.7046605300000002E-01
  3.3718779700000001E-01
  7.7735310800000001E-01
  6.9247907399999997E-01
  6.1077374200000001E-01
  1.6800276900000000E-01
  3.7802571099999999E-01
  1.0334248800000000E-01
  3.2056964899999998E-02
  4.5216527600000000E-01
  3.0067354400000001E-01
  4.3685570400000001E-01
  3.4055346300000000E-01
  3.3775493499999998E-01
  2.7898302699999999E-01
  6.2295507600000001E-02
  0.0000000000000000E+00
  2.6158294100000001E-01
  7.1209096900000002E-01
  1.2799724900000001E-01
  3.3546912699999998E-01
  6.5986579700000003E-01
  3.7785261900000000E-01
  9.0801936400000005E-01
  5.7784879200000006E-01
  1.1519311699999999E+00
  8.2665807000000002E-01
  3.0378505600000000E-01
  5.8857411100000001E-01
  1.7644663199999999E-01
  2.3025751100000000E-01
  8.1856384899999995E-02
  2.1414351500000001E-01
  4.0486583100000001E-01
  2.6328873600000002E-01
  7.2824037100000005E-01
  8.0886048099999996E-01
  7.4771106200000004E-01
  1.0480040300000000E+00
  1.0170322700000001E+00
  1.0596498299999999E+00
  1.2101841000000000E+00
  1.4645820899999999E+00
  1.1474852600000001E+00
  1.5955235999999999E+00
  8.3325773500000000E-01
  2.7845686700000000E-01
  9.9969500300000003E-01
  4.6552160399999998E-01
  1.7019480499999999E+00
  8.1440514300000000E-01
  2.2530891899999999E+00
  1.4611660200000001E+00
  1.2231308200000000E+00
  2.0517928599999999E+00
  8.0344486199999998E-01
  1.3649747400000001E+00
  4.9281719299999999E-01
  8.8238108199999998E-01
  4.5059445500000000E-01
  3.2381871299999998E-01
  9.2116510900000004E-01
  4.6751585600000001E-01
  1.0957652300000000E+00
  8.7299811800000005E-01
  6.8325084400000002E-01
  6.8454849699999998E-01
  2.9251670800000001E-01
  2.3309610800000000E-01
  2.7034410800000003E-01
  1.8987390400000001E-01
  8.5436475300000003E-01
  5.7674056299999998E-01
  1.8404580399999999E+00
  2.0018372499999999E+00
  0.0000000000000000E+00
  0.0000000000000000E+00
  4.3461397300000003E-02
  5.0973433999999998E-02
  0.0000000000000000E+00
  0.0000000000000000E+00
  3.7649089099999999E-01
  3.8809406800000001E-01
  3.4927746700000001E-01
  4.1498729600000001E-01
  3.4429779599999999E-01
  4.7819286599999999E-01
  2.4737158400000001E-01
  3.9602690899999998E-01
  2.2028145199999999E-01
  2.4425595999999999E-01
  4.1767418400000000E-01
  2.8599587100000001E-01
  4.6622142200000000E-01
  6.2203007899999996E-01
  2.9254001400000001E-01
  4.9187666200000002E-01
  2.4643678999999999E-01
  2.0111824600000000E-01
  7.0976042699999997E-01
  4.0947839600000002E-01
  7.8426837900000002E-01
  6.2425440499999996E-01
  6.2247335900000000E-01
  2.9829397800000002E-01
  9.1819250600000002E-01
  3.7837338399999998E-01
  1.2191687800000000E+00
  6.3553905499999996E-01
  1.4279702900000000E+00
  9.8658615400000005E-01
  1.3976093500000000E+00
  9.2304098599999995E-01
  1.3673453300000000E+00
  8.4752035100000001E-01
  1.0276579900000000E+00
  8.3144396499999995E-01
  6.4535737000000004E-01
  5.1835596600000000E-01
  1.1688860500000001E-01
  5.0625048600000000E-02
  0.0000000000000000E+00
  0.0000000000000000E+00
  9.0012389400000004E-01
  5.2983826400000000E-01
  9.7002959300000002E-01
  8.4449333000000004E-01
  7.1068072299999996E-01
  6.8114358200000003E-01
  4.8301443500000002E-01
  3.4576916699999999E-01
  9.9786305399999997E-01
  3.7292116900000000E-01
  1.0953512200000000E+00
  7.9129630299999998E-01
  1.3606617500000000E+00
  7.3059540999999995E-01
  1.0710425400000001E+00
  8.4521162500000002E-01
  1.0007235999999999E+00
  6.3080757899999995E-01
  6.9423782800000000E-01
  5.8127248300000001E-01
  6.1860495800000004E-01
  3.5896483099999998E-01
  3.0941334399999998E-01
  2.2398285600000001E-01
  2.8440937399999999E-01
  2.6667848199999999E-01
  0.0000000000000000E+00
  0.0000000000000000E+00
  0.0000000000000000E+00
  0.0000000000000000E+00
  9.2876359800000002E-02
  2.5631994000000002E-02
  3.5243272799999997E-01
  2.5793072600000000E-01
  1.2285192000000000E+00
  7.0200079699999995E-01
  1.0629323700000000E+00
  8.3012807399999999E-01
  1.1243997800000001E+00
  8.3673036099999998E-01
  9.3974959899999999E-01
  7.6938396700000000E-01
  3.9948645199999999E-01
  3.9031058499999999E-01
  2.2735375199999999E-01
  1.3126748799999999E-01
  7.9962319100000001E-01
  4.3429991600000001E-01
  1.5684243400000000E+00
  8.6292034399999995E-01
  1.2927215100000000E+00
  1.8041042100000000E+00
  1.0394454000000000E+00
  1.3059191699999999E+00
  9.4981777700000003E-01
  1.3142865900000000E+00
  1.0138515200000000E+00
  1.2132892600000000E+00
  1.3630307900000000E+00
  1.1973806600000001E+00
  1.9243308299999999E+00
  1.5826281300000000E+00
  2.1174569100000000E+00
  1.7287014700000001E+00
  1.1758964100000000E+00
  1.4905653000000001E+00
  7.7015310500000000E-01
  4.3012875299999997E-01
  1.8444414099999999E+00
  1.2469931800000000E+00
  1.6384149800000001E+00
  1.4682695900000000E+00
  2.1896524400000001E+00
  2.2332575299999999E+00
  2.7587509200000002E+00
  2.9495515800000001E+00
  2.7933292399999998E+00
  3.2777385699999999E+00
  3.6783909800000001E+00
  2.8959763100000000E+00
  4.5052399599999999E+00
  3.3805365599999999E+00
  4.9810843499999997E+00
  3.7685017599999999E+00
  5.5423951100000002E+00
  4.4079470599999997E+00
  3.9700748899999998E+00
  5.5033435800000001E+00
  2.5264739999999999E+00
  4.1376776700000004E+00
  1.8262703400000000E+00
  3.1590020700000001E+00
  4.2229480700000002E+00
  2.6511433100000001E+00
  6.7577471700000000E+00
  5.2421464899999997E+00
  6.6505460699999999E+00
  7.4824128200000004E+00
  4.5009093299999998E+00
  4.9930014600000003E+00
  2.4435527300000000E+00
  2.8985953300000000E+00
  9.2960584199999996E-01
  1.3561838900000001E+00
  2.9301314399999998E+00
  2.1561102900000000E+00
  5.7746882399999997E+00
  5.2228107499999998E+00
  7.7409825300000001E+00
  6.9735903700000001E+00
  7.9630131700000000E+00
  7.3812575300000001E+00
  6.6192245500000002E+00
  7.6573085799999996E+00
  5.8467841099999998E+00
  6.6596188500000002E+00
  4.6937079400000004E+00
  5.7123527500000000E+00
  3.1115724999999999E+00
  4.2802376700000000E+00
  1.6476925600000001E+00
  2.6137406799999998E+00
  2.5358194099999998E-01
  7.6604463200000000E-02
  9.7574448599999997E-01
  8.1341671900000001E-01
  2.5106921199999999E+00
  2.1256694800000000E+00
  2.0258252600000000E+00
  2.5381097800000001E+00
  2.0844416600000000E+00
  2.6341073499999998E+00
  1.4210307600000001E+00
  2.3436088599999998E+00
  1.5756950400000000E+00
  1.3459314099999999E+00
  7.7638429399999997E-01
  1.3664053700000001E+00
  3.7811088599999998E-01
  7.5553089399999995E-01
  4.7817564000000001E-01
  5.1197153299999998E-01
  1.0865376000000000E+00
  7.7356326600000003E-01
  2.2263421999999999E+00
  1.6950684800000000E+00
  9.4186520600000001E-01
  1.6248271500000000E+00
  4.9977641100000003E+00
  3.5774617200000001E+00
  5.6295633299999999E+00
  4.8349270799999999E+00
  4.0464973400000002E+00
  5.3771743799999996E+00
  2.7507264600000001E+00
  3.8264064800000002E+00
  1.3095880700000000E+00
  2.1297328499999999E+00
  1.1005933299999999E+00
  1.3001031900000000E+00
  1.1182714700000000E+00
  1.3796422500000001E+00
  1.7549893900000000E+00
  1.6120008200000000E+00
  1.0538431399999999E+00
  1.4374256100000000E+00
  5.5566757899999997E-01
  5.7834321300000002E-01
  7.3789042199999999E-01
  9.9939334400000002E-01
  1.2659788100000000E+00
  1.3977065099999999E+00
  1.7549035500000001E+00
  2.0215864200000002E+00
  2.0241324900000000E+00
  2.2999010100000001E+00
  2.3282101200000000E+00
  2.8296160700000001E+00
  2.5418267299999999E+00
  2.8840210399999999E+00
  4.0632667500000004E+00
  4.0303988500000001E+00
  5.8438205700000001E+00
  5.5238985999999999E+00
  3.0317120599999998E+00
  4.7759351700000003E+00
  1.8882498700000001E+00
  2.9686584499999999E+00
  2.6906952899999999E+00
  1.8070380699999999E+00
  3.1184523099999999E+00
  2.3027224500000001E+00
  4.1683182700000003E+00
  2.8686890599999999E+00
  3.5806937200000002E+00
  4.4233326899999996E+00
  3.2923541099999998E+00
  3.9737143499999998E+00
  2.1483635900000002E+00
  3.2907640900000001E+00
  1.6602578200000000E+00
  1.4136121300000000E+00
  1.4369946700000000E+00
  8.5727232700000000E-01
  1.5046197200000000E+00
  1.2424180499999999E+00
  1.5732363500000000E+00
  1.5050402899999999E+00
  1.1857694400000001E+00
  1.2977459400000000E+00
  6.5898197900000000E-01
  7.9750132600000001E-01
  2.4705244600000001E-01
  2.7265259600000002E-01
  4.5835310200000001E-01
  6.9730889799999995E-01
  8.3333834999999995E-02
  1.1279235000000000E-01
  8.0472433600000004E-01
  9.7606116499999995E-01
  6.7071807400000005E-01
  9.4156330799999999E-01
  7.0379453900000000E-01
  8.6964839699999996E-01
  5.2568209200000005E-01
  9.3981200499999995E-01
  8.9506822799999997E-01
  8.5390645300000001E-01
  1.1357160799999999E+00
  1.3627342000000000E+00
  1.2033413600000000E+00
  1.0581130999999999E+00
  7.9870688899999998E-01
  5.3682994799999995E-01
  1.1661262500000000E+00
  8.8057988899999995E-01
  1.5041432400000001E+00
  1.2402932600000001E+00
  1.4809242499999999E+00
  1.2238476300000001E+00
  2.1916258300000000E+00
  1.5042377700000000E+00
  2.3644936099999998E+00
  2.0753850900000002E+00
  2.4278328400000002E+00
  1.9902671599999999E+00
  2.8016998800000001E+00
  2.1808464500000002E+00
  2.6944789899999999E+00
  2.3005709599999999E+00
  2.3749363400000001E+00
  2.1903512500000000E+00
  1.5712930000000001E+00
  1.5845493100000001E+00
  9.2237555999999998E-01
  9.4499999300000004E-01
  1.4741300300000000E+00
  1.3888051500000000E+00
  1.4559357200000000E+00
  1.2543038099999999E+00
  1.6836371400000001E+00
  8.9346599599999998E-01
  2.3597304800000001E+00
  1.5038380600000001E+00
  2.3602988699999998E+00
  1.9228920899999999E+00
  2.1102621600000000E+00
  1.8942147499999999E+00
  2.0739591100000001E+00
  1.8302614699999999E+00
  1.9128623000000000E+00
  1.5333464100000000E+00
  1.8584768800000000E+00
  1.5509451599999999E+00
  1.4957135900000000E+00
  1.2887506500000001E+00
  1.1331165999999999E+00
  9.2510384300000004E-01
  2.9577598599999999E+00
  3.1731827300000002E+00
  3.7848570300000000E+00
  3.7051386800000001E+00
  4.4388036700000004E+00
  4.5905413599999996E+00
  6.0372595799999997E+00
  4.8218507800000001E+00
  7.0820293400000001E+00
  6.0482873899999996E+00
  7.5559716200000002E+00
  6.5535898200000000E+00
  7.5188713099999998E+00
  6.9223308599999998E+00
  7.5776925100000003E+00
  7.0624818800000000E+00
  6.6302833600000000E+00
  6.1264262199999999E+00
  1.5108542400000000E+00
  1.6058882500000000E+00
  2.1305644500000001E+00
  2.3592388600000000E+00
  2.7855689500000000E+00
  2.7440373899999999E+00
  3.3263533100000000E+00
  3.5247657299999999E+00
  3.5660917799999998E+00
  3.9115698299999999E+00
  3.9658164999999999E+00
  4.0160088500000004E+00
  5.0825419399999996E+00
  4.6739416100000000E+00
  6.3219280199999996E+00
  6.1930570600000001E+00
  6.7894182199999999E+00
  6.6499638599999997E+00
  6.6130623799999997E+00
  6.7094483399999998E+00
  5.2211093899999996E+00
  6.3525486000000004E+00
  3.9007017600000000E+00
  4.8631615600000000E+00
  4.5804958300000003E+00
  4.0244355199999999E+00
  4.8255410200000002E+00
  4.0749716800000000E+00
  5.8905129399999998E+00
  4.6606392899999998E+00
  5.2097725900000000E+00
  6.0131874099999996E+00
  4.4977865200000000E+00
  5.1981186900000003E+00
  3.7219166800000001E+00
  4.2708396899999999E+00
  3.0679738500000000E+00
  3.0194275400000001E+00
  2.5927123999999999E+00
  2.1527309400000001E+00
  1.9289462600000000E+00
  2.0898504299999998E+00
  1.5387841499999999E+00
  1.6404002900000001E+00
  1.2279361499999999E+00
  1.3098354299999999E+00
  5.0129504200000001E+00
  4.2820467899999999E+00
  5.7792596800000000E+00
  4.7351961100000004E+00
  7.1605014799999998E+00
  5.5697169300000002E+00
  8.5211057700000001E+00
  7.1127200100000003E+00